# star polymer structure file functionality 6

12884 atoms
3 atom types
120 bonds
0 angles
0 dihedrals
0 impropers
1 bond types
0 angle types
0 dihedral types
0 improper types

-30.00 30.00 xlo xhi
-30.00 30.00 ylo yhi
-120.00 120.00 zlo zhi

Masses

1 1
2 1
3 1

Atoms

97 1 1 -13.6108 -6.251824087845367 -6.345437425415189 -19.4879695402235
98 1 1 -13.6108 -6.861130320862772 -5.993358911716597 -20.192800664191132
96 1 1 -13.6108 -5.7082455599051105 -7.121611622531149 -19.819609359175562
59 1 1 -13.6108 8.962542375960103 0.2622079212262551 -19.967927176103483
60 1 1 -13.6108 8.792469775781875 0.09138496226908682 -20.937427491444925
99 1 1 -13.6108 -6.681631016107552 -6.966830917847267 -20.127207212961537
95 1 1 -13.6108 -4.818602512343784 -6.806754157171189 -19.497158249717813
94 1 1 -13.6108 -4.065586754828675 -6.206285506278085 -19.72894909501607
100 1 1 -13.6108 -6.312994793552199 -7.549707721951773 -20.849529639515588
57 1 1 -13.6108 9.33960963036349 -0.7708495649900695 -18.433575830583386
58 1 1 -13.6108 8.870700138061025 -0.44969727676414745 -19.259520644659087
74 1 1 -13.6108 -0.6409409625501683 2.082844689649993 -17.295706178642288
61 1 1 -13.6108 8.89436165477983 -0.6372638916705702 -20.258981872868365
93 1 1 -13.6108 -3.2747167071864194 -6.674316414950317 -20.1316511632131
101 1 1 -13.6108 -6.831890549264428 -8.39137292757834 -21.030615272443544
47 1 1 -13.6108 6.468150658272579 -1.8737183297619537 -18.160606103334562
48 1 1 -13.6108 6.833691460933665 -1.980573091464919 -19.08678888289232
50 1 1 -13.6108 7.3175030249997075 -0.6634455375625145 -17.744986396513767
53 1 1 -13.6108 8.821551519136571 -2.6887342471436986 -17.437022950640724
54 1 1 -13.6108 9.420912900906046 -2.0340322568382683 -16.974108723940436
55 1 1 -13.6108 9.99495803672148 -1.2319808086882418 -17.150389689437514
72 1 1 -13.6108 0.5821343282634229 0.896770898479612 -16.73306574299485
71 1 1 -13.6108 0.8972227971145585 1.2846805805809018 -15.875280905175217
76 1 1 -13.6108 -0.9327745802103411 0.5800563228033471 -18.139998069505125
75 1 1 -13.6108 -0.7919290137720335 1.562057078717582 -18.133760156848382
73 1 1 -13.6108 -0.26506381519265865 1.1645750614130648 -17.22484019715182
91 1 1 -13.6108 -1.6825763977061494 -6.9752769213978825 -19.365133668396393
90 1 1 -13.6108 -0.9904733273705777 -6.504846866754961 -18.81091614036966
92 1 1 -13.6108 -2.274564133610735 -6.714090672576136 -20.126849422640436
89 1 1 -13.6108 -1.1932592104975237 -6.793130857370022 -17.89367540574901
45 1 1 -13.6108 5.585827390156967 -3.1901094735309017 -17.048461811357697
46 1 1 -13.6108 6.218931841268868 -2.524495433434059 -17.438573743372768
49 1 1 -13.6108 7.274387252803432 -1.4242931502304155 -18.396062088505218
51 1 1 -13.6108 7.9072870346534705 -1.4400596133180343 -17.490813382707135
52 1 1 -13.6108 7.989485736209268 -2.311904859412199 -17.00376284513263
56 1 1 -13.6108 9.205445583734837 -1.4621360663225798 -17.719575206162585
77 1 1 -13.6108 -1.6999754089572616 1.127705436835083 -17.814155730873225
88 1 1 -13.6108 -0.5622262126182886 -6.043304351573619 -17.99597283346474
44 1 1 -13.6108 5.589765830245971 -2.8247869159460737 -16.114553641524097
70 1 1 -13.6108 0.6006167134491024 1.9910061396300214 -16.521034080996643
81 1 1 -13.6108 -2.7068451283194856 0.6369808811844856 -17.59270915639266
78 1 1 -13.6108 -1.8506720718874428 0.41533286747058273 -17.1241361073873
80 1 1 -13.6108 -2.6849613557440497 0.08719016591185814 -16.762224760511714
29 1 1 -13.6108 6.983125752038218 -5.134346466427337 -18.08997917358029
30 1 1 -13.6108 7.408408463248362 -5.568227799145611 -17.292662560985818
26 1 1 -13.6108 5.3060251368704705 -5.363509977901598 -17.172451994507455
43 1 1 -13.6108 4.593580220299473 -2.7149081591300446 -16.10857406020038
66 1 1 -13.6108 2.699283122114868 0.21468412263678052 -15.57809929038684
65 1 1 -13.6108 3.3971078547520728 -0.2849454966748946 -16.09094273688524
67 1 1 -13.6108 2.2782252829026985 1.0332198516469242 -15.972603981822612
79 1 1 -13.6108 -2.4165598896297147 1.0140388877095408 -16.528709710653196
69 1 1 -13.6108 0.996141945768381 1.2969289370592827 -17.147644313115915
87 1 1 -13.6108 0.2529675510427431 -5.702494681418596 -17.485907457429928
37 1 1 -13.6108 6.258579159009302 -4.670396814730824 -14.396243187645823
86 1 1 -13.6108 1.145705569314711 -5.2652167149252405 -17.390214490986914
85 1 1 -13.6108 1.2548256144924415 -4.396385636108166 -17.89746559703129
25 1 1 -13.6108 4.330927193527975 -5.501243532888365 -17.00128344045199
27 1 1 -13.6108 6.123146178596375 -5.6268315255658585 -16.659831565222028
28 1 1 -13.6108 6.597830284799262 -5.860625325018501 -17.51987650823443
62 1 1 -13.6108 3.8028591877025586 -3.1028624515584684 -15.94889596121642
42 1 1 -13.6108 3.7756791393055336 -3.2168412574148 -15.833103226850108
63 1 1 -13.6108 3.77445580312004 -2.111175192001655 -15.818377781067207
68 1 1 -13.6108 1.9432447991249937 1.4107994931917802 -16.837622264381384
39 1 1 -13.6108 6.444930377091699 -6.462433969511699 -15.069835867591909
35 1 1 -13.6108 6.8878978458680065 -3.6801903130771367 -15.252566620417838
24 1 1 -13.6108 3.947816076985632 -4.771778674729353 -16.43587705393023
31 1 1 -13.6108 7.6866006447987045 -4.980097535014214 -16.529909662634548
84 1 1 -13.6108 1.391083889003548 -3.4499940491187213 -17.589176299132653
83 1 1 -13.6108 1.7097145365018456 -3.652294309055573 -16.66782989924023
23 1 1 -13.6108 3.380712745248441 -3.9431493480118305 -16.4354328492896
82 1 1 -13.6108 2.5373124691217837 -3.447577010494582 -16.12696717997114
22 1 1 -13.6108 3.3671411986393553 -2.9371815163249946 -16.520719617944625
1 1 1 0 2.9642563254318373 -2.6717840449111763 -15.66145183635745
2 1 1 -13.6108 3.41191444668463 -3.048378286957171 -14.847109583146716
64 1 1 -13.6108 3.3026755520374493 -1.2283371394639542 -15.801923030987961
34 1 1 -13.6108 7.041279870028094 -3.0962540680090354 -16.04367810732124
38 1 1 -13.6108 6.326640563069326 -5.6678120213674985 -14.483755526620737
32 1 1 -13.6108 7.64911394902098 -4.937819391549375 -15.538707226339227
36 1 1 -13.6108 6.051008139785439 -4.227158212911529 -15.259149956594651
3 1 1 -13.6108 3.6828941241741666 -4.005737456318678 -14.751634210367515
103 1 1 -13.6108 2.854248763297025 -1.619823677648527 -14.772252248348249
102 1 1 -13.6108 2.491638157610666 -2.5505831998623134 -14.774878372987045
105 1 1 -13.6108 1.7936594571652689 -0.2621233954795697 -14.725838788894091
41 1 1 -13.6108 5.253680064357724 -8.065616974079125 -15.224636328853002
40 1 1 -13.6108 5.893871030647757 -7.2972935350716925 -15.137142985936412
11 1 1 -13.6108 5.714995363825848 -4.309296682537445 -13.086747068542095
33 1 1 -13.6108 7.313932629347023 -4.0234473921443445 -15.76608797215422
5 1 1 -13.6108 2.6606524705626744 -4.177621450100126 -14.383671094475316
4 1 1 -13.6108 3.452927079887962 -4.0112964189965785 -13.784066414532216
104 1 1 -13.6108 2.404189498942499 -0.8576249395445656 -15.24737009101338
106 1 1 -13.6108 1.6996797630383391 -0.984292654404773 -14.034072921970099
10 1 1 -13.6108 5.064070271453624 -3.606795790877654 -13.34713638165797
9 1 1 -13.6108 4.366180952396005 -4.309685224217041 -13.39398156010565
12 1 1 -13.6108 5.185921906147224 -4.823498365490244 -12.399401710350693
6 1 1 -13.6108 3.151238298235191 -4.214587763007158 -13.516526163844533
8 1 1 -13.6108 3.7254673119285604 -5.079021048973012 -13.335810504216843
107 1 1 -13.6108 1.0710222723052156 -0.9024793919403833 -13.26494237327976
13 1 1 -13.6108 5.4264711645718595 -5.121351051381244 -13.323668820970372
15 1 1 -13.6108 6.17041364022457 -6.323257940864829 -12.091893060003564
7 1 1 -13.6108 2.864806147557306 -4.915157857641333 -12.865215162165871
108 1 1 -13.6108 0.6348838112825633 -0.3089227344473894 -13.944280564056655
109 1 1 -13.6108 -0.2542050993003369 -0.4305560723548758 -13.498283613481972
14 1 1 -13.6108 5.933384599683041 -5.921288539817805 -12.97649365841002
110 1 1 -13.6108 -0.967903451796392 0.19807046018706725 -13.797640364645623
111 1 1 -13.6108 -1.759445256817603 0.1495798365747187 -13.168726035862925
16 1 1 -13.6108 6.476244257014961 -6.918464974318159 -11.332489397261867
112 1 1 -13.6108 -0.7582028182174901 0.12499523528766067 -13.080251689341303
19 1 1 -13.6108 6.881623117767062 -7.621305101137097 -11.160200094035678
21 1 1 -13.6108 6.37742193228965 -7.486399217922894 -10.394218029148279
18 1 1 -13.6108 6.168145586163182 -7.527347181505711 -10.463127907027573
17 1 1 -13.6108 5.961158862235196 -7.759142695562974 -11.432793723955761
113 1 1 -13.6108 -0.9555853801854517 0.4402941173746108 -12.143738507013735
115 1 1 -13.6108 -0.4004259184010666 -0.6513907134848034 -10.958879640051995
114 1 1 -13.6108 -0.3984784551657322 -0.3596229803005115 -11.905975516235138
116 1 1 -13.6108 0.3977623100664035 -0.9633309083758747 -10.4256852980731
20 1 1 -13.6108 5.879564321977061 -7.710606149477451 -11.23726430668513
117 1 1 -13.6108 0.8836126930455143 -0.3345287033749645 -9.819844733096359
118 1 1 -13.6108 0.023735533484798878 -0.8558523173912304 -9.715309591940658
119 1 1 -13.6108 -0.21116035879811992 -0.2394593018887485 -8.96419372638332
120 1 1 -13.6108 -0.04405185656041083 -0.12445269856965459 -7.993201055146067
121 1 1 -13.6108 0 0 -7.0
122 2 2 0 3.325 0.0 -8.0
123 2 2 0 3.3154773505548434 0.25146558006581854 -8.0
124 2 2 0 3.2869639470930294 0.501490788061568 -8.0
125 2 2 0 3.239623111807435 0.7486435022379576 -8.0
126 2 2 0 3.173726008715421 0.9915080542301626 -8.0
127 2 2 0 3.0896500904559043 1.228693337878017 -8.0
128 2 2 0 2.987876936274818 1.4588407773561192 -8.0
129 2 2 0 2.868989493582806 1.6806321089731313 -8.0
130 2 2 0 2.7336687388852434 1.8927969320668194 -8.0
131 2 2 0 2.5826897772104846 2.094119985744002 -8.0
132 2 2 0 2.416917402378453 2.2834481097848913 -8.0
133 2 2 0 2.2373011435399555 2.459696849840404 -8.0
134 2 2 0 2.0448698263596956 2.6218566690884666 -8.0
135 2 2 0 1.840725679996036 2.7689987307695056 -8.0
136 2 2 0 1.6260380236321956 2.900280218479294 -8.0
137 2 2 0 1.4020365687218619 3.0149491637449923 -8.0
138 2 2 0 1.170004375313345 3.112348753232457 -8.0
139 2 2 0 0.9312705027978154 3.1919210909135436 -8.0
140 2 2 0 0.6872023971774686 3.2532103936440295 -8.0
141 2 2 0 0.43919805845865995 3.295865601848192 -8.0
142 2 2 0 0.18867803303447062 3.3196423903562633 -8.0
143 2 2 0 -0.06292272307638802 3.3244045678768783 -8.0
144 2 2 0 -0.31416306352770385 3.310124857088459 -8.0
145 2 2 0 -0.5636039064015215 3.27688505088124 -8.0
146 2 2 0 -0.8098164771390486 3.224875543855003 -8.0
147 2 2 0 -1.05139049243194 3.1543942417560498 -8.0
148 2 2 0 -1.2869422381973723 3.065844855100065 -8.0
149 2 2 0 -1.515122495367003 2.9597345867548444 -8.0
150 2 2 0 -1.7346242680916109 2.8366712267281953 -8.0
151 2 2 0 -1.9441902700949567 2.69735967080182 -8.0
152 2 2 0 -2.1426201262957165 2.542597882952106 -8.0
153 2 2 0 -2.3287772484472415 2.3732723246847374 -8.0
154 2 2 0 -2.501595345412108 2.1903528774634644 -8.0
155 2 2 0 -2.6600845307811873 1.9948872873169128 -8.0
156 2 2 0 -2.8033369928533562 1.7879951634442146 -8.0
157 2 2 0 -2.9305321944987077 1.5708615651949058 -8.0
158 2 2 0 -3.040941573120927 1.3447302141562905 -8.0
159 2 2 0 -3.133932713797862 1.1108963702288204 -8.0
160 2 2 0 -3.208972971696929 0.8706994124946819 -8.0
161 2 2 0 -3.265632523016474 0.6255151673757064 -8.0
162 2 2 0 -3.30358682697759 0.37674802802422136 -8.0
163 2 2 0 -3.3226184847643023 0.12582291008625415 -8.0
164 2 2 0 -3.3226184847643023 -0.12582291008625335 -8.0
165 2 2 0 -3.30358682697759 -0.37674802802422197 -8.0
166 2 2 0 -3.265632523016474 -0.6255151673757071 -8.0
167 2 2 0 -3.2089729716969284 -0.8706994124946824 -8.0
168 2 2 0 -3.133932713797862 -1.110896370228821 -8.0
169 2 2 0 -3.040941573120927 -1.3447302141562911 -8.0
170 2 2 0 -2.9305321944987077 -1.5708615651949063 -8.0
171 2 2 0 -2.803336992853356 -1.7879951634442153 -8.0
172 2 2 0 -2.660084530781187 -1.9948872873169137 -8.0
173 2 2 0 -2.5015953454121074 -2.1903528774634644 -8.0
174 2 2 0 -2.328777248447241 -2.3732723246847374 -8.0
175 2 2 0 -2.1426201262957165 -2.5425978829521054 -8.0
176 2 2 0 -1.9441902700949572 -2.697359670801819 -8.0
177 2 2 0 -1.7346242680916117 -2.836671226728195 -8.0
178 2 2 0 -1.5151224953670037 -2.959734586754844 -8.0
179 2 2 0 -1.2869422381973723 -3.065844855100065 -8.0
180 2 2 0 -1.05139049243194 -3.1543942417560498 -8.0
181 2 2 0 -0.8098164771390487 -3.224875543855003 -8.0
182 2 2 0 -0.5636039064015215 -3.27688505088124 -8.0
183 2 2 0 -0.31416306352770396 -3.310124857088459 -8.0
184 2 2 0 -0.0629227230763881 -3.3244045678768783 -8.0
185 2 2 0 0.18867803303447125 -3.3196423903562633 -8.0
186 2 2 0 0.43919805845866056 -3.2958656018481918 -8.0
187 2 2 0 0.6872023971774692 -3.2532103936440295 -8.0
188 2 2 0 0.9312705027978162 -3.1919210909135436 -8.0
189 2 2 0 1.1700043753133458 -3.1123487532324567 -8.0
190 2 2 0 1.4020365687218626 -3.0149491637449923 -8.0
191 2 2 0 1.6260380236321963 -2.900280218479294 -8.0
192 2 2 0 1.8407256799960368 -2.7689987307695048 -8.0
193 2 2 0 2.0448698263596965 -2.621856669088466 -8.0
194 2 2 0 2.2373011435399563 -2.459696849840404 -8.0
195 2 2 0 2.416917402378454 -2.2834481097848904 -8.0
196 2 2 0 2.5826897772104855 -2.094119985744001 -8.0
197 2 2 0 2.7336687388852443 -1.8927969320668183 -8.0
198 2 2 0 2.868989493582807 -1.6806321089731302 -8.0
199 2 2 0 2.987876936274819 -1.4588407773561178 -8.0
200 2 2 0 3.089650090455905 -1.2286933378780152 -8.0
201 2 2 0 3.173726008715422 -0.991508054230161 -8.0
202 2 2 0 3.2396231118074352 -0.7486435022379557 -8.0
203 2 2 0 3.2869639470930294 -0.501490788061569 -8.0
204 2 2 0 3.3154773505548434 -0.2514655800658195 -8.0
205 2 2 0 3.325 0.0 -7.75
206 2 2 0 3.3154773505548434 0.25146558006581854 -7.75
207 2 2 0 3.2869639470930294 0.501490788061568 -7.75
208 2 2 0 3.239623111807435 0.7486435022379576 -7.75
209 2 2 0 3.173726008715421 0.9915080542301626 -7.75
210 2 2 0 3.0896500904559043 1.228693337878017 -7.75
211 2 2 0 2.987876936274818 1.4588407773561192 -7.75
212 2 2 0 2.868989493582806 1.6806321089731313 -7.75
213 2 2 0 2.7336687388852434 1.8927969320668194 -7.75
214 2 2 0 2.5826897772104846 2.094119985744002 -7.75
215 2 2 0 2.416917402378453 2.2834481097848913 -7.75
216 2 2 0 2.2373011435399555 2.459696849840404 -7.75
217 2 2 0 2.0448698263596956 2.6218566690884666 -7.75
218 2 2 0 1.840725679996036 2.7689987307695056 -7.75
219 2 2 0 1.6260380236321956 2.900280218479294 -7.75
220 2 2 0 1.4020365687218619 3.0149491637449923 -7.75
221 2 2 0 1.170004375313345 3.112348753232457 -7.75
222 2 2 0 0.9312705027978154 3.1919210909135436 -7.75
223 2 2 0 0.6872023971774686 3.2532103936440295 -7.75
224 2 2 0 0.43919805845865995 3.295865601848192 -7.75
225 2 2 0 0.18867803303447062 3.3196423903562633 -7.75
226 2 2 0 -0.06292272307638802 3.3244045678768783 -7.75
227 2 2 0 -0.31416306352770385 3.310124857088459 -7.75
228 2 2 0 -0.5636039064015215 3.27688505088124 -7.75
229 2 2 0 -0.8098164771390486 3.224875543855003 -7.75
230 2 2 0 -1.05139049243194 3.1543942417560498 -7.75
231 2 2 0 -1.2869422381973723 3.065844855100065 -7.75
232 2 2 0 -1.515122495367003 2.9597345867548444 -7.75
233 2 2 0 -1.7346242680916109 2.8366712267281953 -7.75
234 2 2 0 -1.9441902700949567 2.69735967080182 -7.75
235 2 2 0 -2.1426201262957165 2.542597882952106 -7.75
236 2 2 0 -2.3287772484472415 2.3732723246847374 -7.75
237 2 2 0 -2.501595345412108 2.1903528774634644 -7.75
238 2 2 0 -2.6600845307811873 1.9948872873169128 -7.75
239 2 2 0 -2.8033369928533562 1.7879951634442146 -7.75
240 2 2 0 -2.9305321944987077 1.5708615651949058 -7.75
241 2 2 0 -3.040941573120927 1.3447302141562905 -7.75
242 2 2 0 -3.133932713797862 1.1108963702288204 -7.75
243 2 2 0 -3.208972971696929 0.8706994124946819 -7.75
244 2 2 0 -3.265632523016474 0.6255151673757064 -7.75
245 2 2 0 -3.30358682697759 0.37674802802422136 -7.75
246 2 2 0 -3.3226184847643023 0.12582291008625415 -7.75
247 2 2 0 -3.3226184847643023 -0.12582291008625335 -7.75
248 2 2 0 -3.30358682697759 -0.37674802802422197 -7.75
249 2 2 0 -3.265632523016474 -0.6255151673757071 -7.75
250 2 2 0 -3.2089729716969284 -0.8706994124946824 -7.75
251 2 2 0 -3.133932713797862 -1.110896370228821 -7.75
252 2 2 0 -3.040941573120927 -1.3447302141562911 -7.75
253 2 2 0 -2.9305321944987077 -1.5708615651949063 -7.75
254 2 2 0 -2.803336992853356 -1.7879951634442153 -7.75
255 2 2 0 -2.660084530781187 -1.9948872873169137 -7.75
256 2 2 0 -2.5015953454121074 -2.1903528774634644 -7.75
257 2 2 0 -2.328777248447241 -2.3732723246847374 -7.75
258 2 2 0 -2.1426201262957165 -2.5425978829521054 -7.75
259 2 2 0 -1.9441902700949572 -2.697359670801819 -7.75
260 2 2 0 -1.7346242680916117 -2.836671226728195 -7.75
261 2 2 0 -1.5151224953670037 -2.959734586754844 -7.75
262 2 2 0 -1.2869422381973723 -3.065844855100065 -7.75
263 2 2 0 -1.05139049243194 -3.1543942417560498 -7.75
264 2 2 0 -0.8098164771390487 -3.224875543855003 -7.75
265 2 2 0 -0.5636039064015215 -3.27688505088124 -7.75
266 2 2 0 -0.31416306352770396 -3.310124857088459 -7.75
267 2 2 0 -0.0629227230763881 -3.3244045678768783 -7.75
268 2 2 0 0.18867803303447125 -3.3196423903562633 -7.75
269 2 2 0 0.43919805845866056 -3.2958656018481918 -7.75
270 2 2 0 0.6872023971774692 -3.2532103936440295 -7.75
271 2 2 0 0.9312705027978162 -3.1919210909135436 -7.75
272 2 2 0 1.1700043753133458 -3.1123487532324567 -7.75
273 2 2 0 1.4020365687218626 -3.0149491637449923 -7.75
274 2 2 0 1.6260380236321963 -2.900280218479294 -7.75
275 2 2 0 1.8407256799960368 -2.7689987307695048 -7.75
276 2 2 0 2.0448698263596965 -2.621856669088466 -7.75
277 2 2 0 2.2373011435399563 -2.459696849840404 -7.75
278 2 2 0 2.416917402378454 -2.2834481097848904 -7.75
279 2 2 0 2.5826897772104855 -2.094119985744001 -7.75
280 2 2 0 2.7336687388852443 -1.8927969320668183 -7.75
281 2 2 0 2.868989493582807 -1.6806321089731302 -7.75
282 2 2 0 2.987876936274819 -1.4588407773561178 -7.75
283 2 2 0 3.089650090455905 -1.2286933378780152 -7.75
284 2 2 0 3.173726008715422 -0.991508054230161 -7.75
285 2 2 0 3.2396231118074352 -0.7486435022379557 -7.75
286 2 2 0 3.2869639470930294 -0.501490788061569 -7.75
287 2 2 0 3.3154773505548434 -0.2514655800658195 -7.75
288 2 2 0 3.325 0.0 -7.5
289 2 2 0 3.3154773505548434 0.25146558006581854 -7.5
290 2 2 0 3.2869639470930294 0.501490788061568 -7.5
291 2 2 0 3.239623111807435 0.7486435022379576 -7.5
292 2 2 0 3.173726008715421 0.9915080542301626 -7.5
293 2 2 0 3.0896500904559043 1.228693337878017 -7.5
294 2 2 0 2.987876936274818 1.4588407773561192 -7.5
295 2 2 0 2.868989493582806 1.6806321089731313 -7.5
296 2 2 0 2.7336687388852434 1.8927969320668194 -7.5
297 2 2 0 2.5826897772104846 2.094119985744002 -7.5
298 2 2 0 2.416917402378453 2.2834481097848913 -7.5
299 2 2 0 2.2373011435399555 2.459696849840404 -7.5
300 2 2 0 2.0448698263596956 2.6218566690884666 -7.5
301 2 2 0 1.840725679996036 2.7689987307695056 -7.5
302 2 2 0 1.6260380236321956 2.900280218479294 -7.5
303 2 2 0 1.4020365687218619 3.0149491637449923 -7.5
304 2 2 0 1.170004375313345 3.112348753232457 -7.5
305 2 2 0 0.9312705027978154 3.1919210909135436 -7.5
306 2 2 0 0.6872023971774686 3.2532103936440295 -7.5
307 2 2 0 0.43919805845865995 3.295865601848192 -7.5
308 2 2 0 0.18867803303447062 3.3196423903562633 -7.5
309 2 2 0 -0.06292272307638802 3.3244045678768783 -7.5
310 2 2 0 -0.31416306352770385 3.310124857088459 -7.5
311 2 2 0 -0.5636039064015215 3.27688505088124 -7.5
312 2 2 0 -0.8098164771390486 3.224875543855003 -7.5
313 2 2 0 -1.05139049243194 3.1543942417560498 -7.5
314 2 2 0 -1.2869422381973723 3.065844855100065 -7.5
315 2 2 0 -1.515122495367003 2.9597345867548444 -7.5
316 2 2 0 -1.7346242680916109 2.8366712267281953 -7.5
317 2 2 0 -1.9441902700949567 2.69735967080182 -7.5
318 2 2 0 -2.1426201262957165 2.542597882952106 -7.5
319 2 2 0 -2.3287772484472415 2.3732723246847374 -7.5
320 2 2 0 -2.501595345412108 2.1903528774634644 -7.5
321 2 2 0 -2.6600845307811873 1.9948872873169128 -7.5
322 2 2 0 -2.8033369928533562 1.7879951634442146 -7.5
323 2 2 0 -2.9305321944987077 1.5708615651949058 -7.5
324 2 2 0 -3.040941573120927 1.3447302141562905 -7.5
325 2 2 0 -3.133932713797862 1.1108963702288204 -7.5
326 2 2 0 -3.208972971696929 0.8706994124946819 -7.5
327 2 2 0 -3.265632523016474 0.6255151673757064 -7.5
328 2 2 0 -3.30358682697759 0.37674802802422136 -7.5
329 2 2 0 -3.3226184847643023 0.12582291008625415 -7.5
330 2 2 0 -3.3226184847643023 -0.12582291008625335 -7.5
331 2 2 0 -3.30358682697759 -0.37674802802422197 -7.5
332 2 2 0 -3.265632523016474 -0.6255151673757071 -7.5
333 2 2 0 -3.2089729716969284 -0.8706994124946824 -7.5
334 2 2 0 -3.133932713797862 -1.110896370228821 -7.5
335 2 2 0 -3.040941573120927 -1.3447302141562911 -7.5
336 2 2 0 -2.9305321944987077 -1.5708615651949063 -7.5
337 2 2 0 -2.803336992853356 -1.7879951634442153 -7.5
338 2 2 0 -2.660084530781187 -1.9948872873169137 -7.5
339 2 2 0 -2.5015953454121074 -2.1903528774634644 -7.5
340 2 2 0 -2.328777248447241 -2.3732723246847374 -7.5
341 2 2 0 -2.1426201262957165 -2.5425978829521054 -7.5
342 2 2 0 -1.9441902700949572 -2.697359670801819 -7.5
343 2 2 0 -1.7346242680916117 -2.836671226728195 -7.5
344 2 2 0 -1.5151224953670037 -2.959734586754844 -7.5
345 2 2 0 -1.2869422381973723 -3.065844855100065 -7.5
346 2 2 0 -1.05139049243194 -3.1543942417560498 -7.5
347 2 2 0 -0.8098164771390487 -3.224875543855003 -7.5
348 2 2 0 -0.5636039064015215 -3.27688505088124 -7.5
349 2 2 0 -0.31416306352770396 -3.310124857088459 -7.5
350 2 2 0 -0.0629227230763881 -3.3244045678768783 -7.5
351 2 2 0 0.18867803303447125 -3.3196423903562633 -7.5
352 2 2 0 0.43919805845866056 -3.2958656018481918 -7.5
353 2 2 0 0.6872023971774692 -3.2532103936440295 -7.5
354 2 2 0 0.9312705027978162 -3.1919210909135436 -7.5
355 2 2 0 1.1700043753133458 -3.1123487532324567 -7.5
356 2 2 0 1.4020365687218626 -3.0149491637449923 -7.5
357 2 2 0 1.6260380236321963 -2.900280218479294 -7.5
358 2 2 0 1.8407256799960368 -2.7689987307695048 -7.5
359 2 2 0 2.0448698263596965 -2.621856669088466 -7.5
360 2 2 0 2.2373011435399563 -2.459696849840404 -7.5
361 2 2 0 2.416917402378454 -2.2834481097848904 -7.5
362 2 2 0 2.5826897772104855 -2.094119985744001 -7.5
363 2 2 0 2.7336687388852443 -1.8927969320668183 -7.5
364 2 2 0 2.868989493582807 -1.6806321089731302 -7.5
365 2 2 0 2.987876936274819 -1.4588407773561178 -7.5
366 2 2 0 3.089650090455905 -1.2286933378780152 -7.5
367 2 2 0 3.173726008715422 -0.991508054230161 -7.5
368 2 2 0 3.2396231118074352 -0.7486435022379557 -7.5
369 2 2 0 3.2869639470930294 -0.501490788061569 -7.5
370 2 2 0 3.3154773505548434 -0.2514655800658195 -7.5
371 2 2 0 3.325 0.0 -7.25
372 2 2 0 3.3154773505548434 0.25146558006581854 -7.25
373 2 2 0 3.2869639470930294 0.501490788061568 -7.25
374 2 2 0 3.239623111807435 0.7486435022379576 -7.25
375 2 2 0 3.173726008715421 0.9915080542301626 -7.25
376 2 2 0 3.0896500904559043 1.228693337878017 -7.25
377 2 2 0 2.987876936274818 1.4588407773561192 -7.25
378 2 2 0 2.868989493582806 1.6806321089731313 -7.25
379 2 2 0 2.7336687388852434 1.8927969320668194 -7.25
380 2 2 0 2.5826897772104846 2.094119985744002 -7.25
381 2 2 0 2.416917402378453 2.2834481097848913 -7.25
382 2 2 0 2.2373011435399555 2.459696849840404 -7.25
383 2 2 0 2.0448698263596956 2.6218566690884666 -7.25
384 2 2 0 1.840725679996036 2.7689987307695056 -7.25
385 2 2 0 1.6260380236321956 2.900280218479294 -7.25
386 2 2 0 1.4020365687218619 3.0149491637449923 -7.25
387 2 2 0 1.170004375313345 3.112348753232457 -7.25
388 2 2 0 0.9312705027978154 3.1919210909135436 -7.25
389 2 2 0 0.6872023971774686 3.2532103936440295 -7.25
390 2 2 0 0.43919805845865995 3.295865601848192 -7.25
391 2 2 0 0.18867803303447062 3.3196423903562633 -7.25
392 2 2 0 -0.06292272307638802 3.3244045678768783 -7.25
393 2 2 0 -0.31416306352770385 3.310124857088459 -7.25
394 2 2 0 -0.5636039064015215 3.27688505088124 -7.25
395 2 2 0 -0.8098164771390486 3.224875543855003 -7.25
396 2 2 0 -1.05139049243194 3.1543942417560498 -7.25
397 2 2 0 -1.2869422381973723 3.065844855100065 -7.25
398 2 2 0 -1.515122495367003 2.9597345867548444 -7.25
399 2 2 0 -1.7346242680916109 2.8366712267281953 -7.25
400 2 2 0 -1.9441902700949567 2.69735967080182 -7.25
401 2 2 0 -2.1426201262957165 2.542597882952106 -7.25
402 2 2 0 -2.3287772484472415 2.3732723246847374 -7.25
403 2 2 0 -2.501595345412108 2.1903528774634644 -7.25
404 2 2 0 -2.6600845307811873 1.9948872873169128 -7.25
405 2 2 0 -2.8033369928533562 1.7879951634442146 -7.25
406 2 2 0 -2.9305321944987077 1.5708615651949058 -7.25
407 2 2 0 -3.040941573120927 1.3447302141562905 -7.25
408 2 2 0 -3.133932713797862 1.1108963702288204 -7.25
409 2 2 0 -3.208972971696929 0.8706994124946819 -7.25
410 2 2 0 -3.265632523016474 0.6255151673757064 -7.25
411 2 2 0 -3.30358682697759 0.37674802802422136 -7.25
412 2 2 0 -3.3226184847643023 0.12582291008625415 -7.25
413 2 2 0 -3.3226184847643023 -0.12582291008625335 -7.25
414 2 2 0 -3.30358682697759 -0.37674802802422197 -7.25
415 2 2 0 -3.265632523016474 -0.6255151673757071 -7.25
416 2 2 0 -3.2089729716969284 -0.8706994124946824 -7.25
417 2 2 0 -3.133932713797862 -1.110896370228821 -7.25
418 2 2 0 -3.040941573120927 -1.3447302141562911 -7.25
419 2 2 0 -2.9305321944987077 -1.5708615651949063 -7.25
420 2 2 0 -2.803336992853356 -1.7879951634442153 -7.25
421 2 2 0 -2.660084530781187 -1.9948872873169137 -7.25
422 2 2 0 -2.5015953454121074 -2.1903528774634644 -7.25
423 2 2 0 -2.328777248447241 -2.3732723246847374 -7.25
424 2 2 0 -2.1426201262957165 -2.5425978829521054 -7.25
425 2 2 0 -1.9441902700949572 -2.697359670801819 -7.25
426 2 2 0 -1.7346242680916117 -2.836671226728195 -7.25
427 2 2 0 -1.5151224953670037 -2.959734586754844 -7.25
428 2 2 0 -1.2869422381973723 -3.065844855100065 -7.25
429 2 2 0 -1.05139049243194 -3.1543942417560498 -7.25
430 2 2 0 -0.8098164771390487 -3.224875543855003 -7.25
431 2 2 0 -0.5636039064015215 -3.27688505088124 -7.25
432 2 2 0 -0.31416306352770396 -3.310124857088459 -7.25
433 2 2 0 -0.0629227230763881 -3.3244045678768783 -7.25
434 2 2 0 0.18867803303447125 -3.3196423903562633 -7.25
435 2 2 0 0.43919805845866056 -3.2958656018481918 -7.25
436 2 2 0 0.6872023971774692 -3.2532103936440295 -7.25
437 2 2 0 0.9312705027978162 -3.1919210909135436 -7.25
438 2 2 0 1.1700043753133458 -3.1123487532324567 -7.25
439 2 2 0 1.4020365687218626 -3.0149491637449923 -7.25
440 2 2 0 1.6260380236321963 -2.900280218479294 -7.25
441 2 2 0 1.8407256799960368 -2.7689987307695048 -7.25
442 2 2 0 2.0448698263596965 -2.621856669088466 -7.25
443 2 2 0 2.2373011435399563 -2.459696849840404 -7.25
444 2 2 0 2.416917402378454 -2.2834481097848904 -7.25
445 2 2 0 2.5826897772104855 -2.094119985744001 -7.25
446 2 2 0 2.7336687388852443 -1.8927969320668183 -7.25
447 2 2 0 2.868989493582807 -1.6806321089731302 -7.25
448 2 2 0 2.987876936274819 -1.4588407773561178 -7.25
449 2 2 0 3.089650090455905 -1.2286933378780152 -7.25
450 2 2 0 3.173726008715422 -0.991508054230161 -7.25
451 2 2 0 3.2396231118074352 -0.7486435022379557 -7.25
452 2 2 0 3.2869639470930294 -0.501490788061569 -7.25
453 2 2 0 3.3154773505548434 -0.2514655800658195 -7.25
454 2 2 0 3.325 0.0 -7.0
455 2 2 0 3.3154773505548434 0.25146558006581854 -7.0
456 2 2 0 3.2869639470930294 0.501490788061568 -7.0
457 2 2 0 3.239623111807435 0.7486435022379576 -7.0
458 2 2 0 3.173726008715421 0.9915080542301626 -7.0
459 2 2 0 3.0896500904559043 1.228693337878017 -7.0
460 2 2 0 2.987876936274818 1.4588407773561192 -7.0
461 2 2 0 2.868989493582806 1.6806321089731313 -7.0
462 2 2 0 2.7336687388852434 1.8927969320668194 -7.0
463 2 2 0 2.5826897772104846 2.094119985744002 -7.0
464 2 2 0 2.416917402378453 2.2834481097848913 -7.0
465 2 2 0 2.2373011435399555 2.459696849840404 -7.0
466 2 2 0 2.0448698263596956 2.6218566690884666 -7.0
467 2 2 0 1.840725679996036 2.7689987307695056 -7.0
468 2 2 0 1.6260380236321956 2.900280218479294 -7.0
469 2 2 0 1.4020365687218619 3.0149491637449923 -7.0
470 2 2 0 1.170004375313345 3.112348753232457 -7.0
471 2 2 0 0.9312705027978154 3.1919210909135436 -7.0
472 2 2 0 0.6872023971774686 3.2532103936440295 -7.0
473 2 2 0 0.43919805845865995 3.295865601848192 -7.0
474 2 2 0 0.18867803303447062 3.3196423903562633 -7.0
475 2 2 0 -0.06292272307638802 3.3244045678768783 -7.0
476 2 2 0 -0.31416306352770385 3.310124857088459 -7.0
477 2 2 0 -0.5636039064015215 3.27688505088124 -7.0
478 2 2 0 -0.8098164771390486 3.224875543855003 -7.0
479 2 2 0 -1.05139049243194 3.1543942417560498 -7.0
480 2 2 0 -1.2869422381973723 3.065844855100065 -7.0
481 2 2 0 -1.515122495367003 2.9597345867548444 -7.0
482 2 2 0 -1.7346242680916109 2.8366712267281953 -7.0
483 2 2 0 -1.9441902700949567 2.69735967080182 -7.0
484 2 2 0 -2.1426201262957165 2.542597882952106 -7.0
485 2 2 0 -2.3287772484472415 2.3732723246847374 -7.0
486 2 2 0 -2.501595345412108 2.1903528774634644 -7.0
487 2 2 0 -2.6600845307811873 1.9948872873169128 -7.0
488 2 2 0 -2.8033369928533562 1.7879951634442146 -7.0
489 2 2 0 -2.9305321944987077 1.5708615651949058 -7.0
490 2 2 0 -3.040941573120927 1.3447302141562905 -7.0
491 2 2 0 -3.133932713797862 1.1108963702288204 -7.0
492 2 2 0 -3.208972971696929 0.8706994124946819 -7.0
493 2 2 0 -3.265632523016474 0.6255151673757064 -7.0
494 2 2 0 -3.30358682697759 0.37674802802422136 -7.0
495 2 2 0 -3.3226184847643023 0.12582291008625415 -7.0
496 2 2 0 -3.3226184847643023 -0.12582291008625335 -7.0
497 2 2 0 -3.30358682697759 -0.37674802802422197 -7.0
498 2 2 0 -3.265632523016474 -0.6255151673757071 -7.0
499 2 2 0 -3.2089729716969284 -0.8706994124946824 -7.0
500 2 2 0 -3.133932713797862 -1.110896370228821 -7.0
501 2 2 0 -3.040941573120927 -1.3447302141562911 -7.0
502 2 2 0 -2.9305321944987077 -1.5708615651949063 -7.0
503 2 2 0 -2.803336992853356 -1.7879951634442153 -7.0
504 2 2 0 -2.660084530781187 -1.9948872873169137 -7.0
505 2 2 0 -2.5015953454121074 -2.1903528774634644 -7.0
506 2 2 0 -2.328777248447241 -2.3732723246847374 -7.0
507 2 2 0 -2.1426201262957165 -2.5425978829521054 -7.0
508 2 2 0 -1.9441902700949572 -2.697359670801819 -7.0
509 2 2 0 -1.7346242680916117 -2.836671226728195 -7.0
510 2 2 0 -1.5151224953670037 -2.959734586754844 -7.0
511 2 2 0 -1.2869422381973723 -3.065844855100065 -7.0